2700
  step=0  temp=186349371023949824.00000000  pot=      -4414.65771484  ener=754435409752734302208.00000000
A      -431594.56250000     -431586.12500000     -431591.68750000
A      -431585.81250000     -431587.40625000     -431589.34375000
A      -431582.25000000     -431583.40625000     -431591.96875000
B      -431583.93750000     -431586.90625000     -431590.03125000
B      -431593.21875000     -431589.12500000     -431592.37500000
B      -431579.78125000     -431587.90625000     -431592.81250000
A      -431594.46875000     -431588.93750000     -431586.62500000
A      -431585.56250000     -431585.50000000     -431592.09375000
A      -431587.84375000     -431589.31250000     -431593.75000000
B      -431582.84375000     -431582.56250000     -431586.78125000
A      -431581.46875000     -431583.68750000     -431580.25000000
B      -431586.50000000     -431592.46875000     -431587.65625000
A      -431581.65625000     -431591.43750000     -431582.90625000
B      -431579.65625000     -431579.59375000     -431585.40625000
B      -431590.59375000     -431590.12500000     -431582.00000000
B      -431588.96875000     -431593.21875000     -431584.43750000
B      -431594.46875000     -431580.81250000     -431590.46875000
A      -431585.78125000     -431584.21875000     -431582.03125000
B      -431587.31250000     -431591.50000000     -431583.43750000
B      -431587.71875000     -431580.34375000     -431583.43750000
A      -431585.59375000     -431588.81250000     -431583.56250000
B      -431586.00000000     -431589.18750000     -431592.31250000
A      -431588.21875000     -431582.56250000     -431586.84375000
A      -431583.31250000     -431589.40625000     -431592.06250000
A      -431587.21875000     -431593.65625000     -431584.09375000
A      -431592.37500000     -431580.34375000     -431592.46875000
B      -431584.18750000     -431590.06250000     -431588.18750000
A      -431580.09375000     -431584.34375000     -431592.28125000
B      -431582.28125000     -431585.87500000     -431591.71875000
A      -431582.34375000     -431587.46875000     -431592.25000000
A      -431583.62500000     -431588.50000000     -431590.40625000
B      -431584.37500000     -431583.25000000     -431583.75000000
B      -431592.75000000     -431589.06250000     -431582.06250000
B      -431586.84375000     -431584.65625000     -431588.18750000
B      -431580.34375000     -431580.78125000     -431586.34375000
B      -431587.53125000     -431588.96875000     -431581.87500000
B      -431587.75000000     -431590.50000000     -431579.84375000
A      -431583.50000000     -431586.09375000     -431591.65625000
A      -431582.00000000     -431588.62500000     -431587.09375000
B      -431581.93750000     -431585.18750000     -431584.71875000
A      -431581.96875000     -431592.75000000     -431592.93750000
B      -431589.87500000     -431580.46875000     -431590.31250000
A      -431592.50000000     -431583.59375000     -431582.06250000
B      -431585.59375000     -431583.37500000     -431590.81250000
A      -431594.56250000     -431593.68750000     -431582.50000000
B      -431591.43750000     -431592.87500000     -431586.28125000
A      -431592.87500000     -431587.78125000     -431583.31250000
B      -431586.43750000     -431593.50000000     -431588.03125000
A      -431591.09375000     -431585.93750000     -431586.59375000
A      -431592.18750000     -431587.03125000     -431580.15625000
B      -431580.71875000     -431591.75000000     -431589.56250000
B      -431579.65625000     -431587.71875000     -431579.62500000
A      -431585.21875000     -431593.18750000     -431588.03125000
B      -431591.18750000     -431583.06250000     -431588.43750000
B      -431585.18750000     -431585.53125000     -431587.81250000
A      -431582.15625000     -431585.21875000     -431583.78125000
A      -431588.96875000     -431591.84375000     -431583.53125000
A      -431581.03125000     -431590.93750000     -431591.75000000
B      -431584.12500000     -431585.81250000     -431589.31250000
A      -431593.37500000     -431583.46875000     -431585.40625000
A      -431584.21875000     -431582.53125000     -431592.34375000
A      -431581.56250000     -431580.90625000     -431585.37500000
B      -431593.93750000     -431584.56250000     -431579.93750000
A      -431592.96875000     -431581.56250000     -431581.81250000
B      -431592.28125000     -431589.68750000     -431593.40625000
B      -431584.96875000     -431582.28125000     -431586.40625000
A      -431588.46875000     -431590.12500000     -431587.62500000
B      -431592.31250000     -431589.75000000     -431583.53125000
A      -431582.18750000     -431580.21875000     -431581.50000000
B      -431590.09375000     -431580.43750000     -431592.68750000
A      -431582.81250000     -431586.71875000     -431585.43750000
B      -431593.50000000     -431581.46875000     -431584.78125000
B      -431593.03125000     -431587.03125000     -431591.18750000
B      -431580.78125000     -431586.31250000     -431584.65625000
A      -431587.21875000     -431588.90625000     -431587.15625000
A      -431586.96875000     -431588.84375000     -431584.28125000
A      -431585.50000000     -431588.65625000     -431594.50000000
B      -431593.09375000     -431585.25000000     -431581.65625000
A      -431583.37500000     -431587.12500000     -431588.90625000
A      -431586.31250000     -431589.25000000     -431580.25000000
A      -431591.93750000     -431588.96875000     -431592.62500000
B      -431580.31250000     -431585.40625000     -431594.18750000
A      -431593.75000000     -431585.00000000     -431592.62500000
A      -431581.78125000     -431594.37500000     -431592.68750000
B      -431585.34375000     -431591.34375000     -431593.59375000
B      -431585.21875000     -431589.46875000     -431589.81250000
A      -431584.68750000     -431582.56250000     -431582.50000000
B      -431585.43750000     -431582.62500000     -431581.09375000
B      -431585.15625000     -431588.56250000     -431590.78125000
A      -431581.78125000     -431593.59375000     -431588.18750000
B      -431590.06250000     -431586.37500000     -431591.21875000
B      -431592.93750000     -431582.46875000     -431592.56250000
A      -431582.78125000     -431581.15625000     -431582.75000000
B      -431585.37500000     -431589.18750000     -431581.75000000
A      -431581.62500000     -431591.15625000     -431590.84375000
A      -431579.81250000     -431593.78125000     -431593.37500000
A      -431588.18750000     -431593.18750000     -431590.71875000
A      -431591.09375000     -431592.40625000     -431592.71875000
B      -431593.40625000     -431593.87500000     -431593.71875000
A      -431580.87500000     -431588.62500000     -431588.09375000
A      -431582.03125000     -431586.59375000     -431581.96875000
A      -431588.62500000     -431590.71875000     -431594.53125000
A      -431580.28125000     -431588.62500000     -431590.96875000
B      -431590.78125000     -431584.34375000     -431580.40625000
A      -431581.25000000     -431594.50000000     -431580.46875000
B      -431582.81250000     -431585.93750000     -431592.46875000
B      -431588.84375000     -431594.53125000     -431588.31250000
A      -431584.68750000     -431581.78125000     -431593.62500000
A      -431584.65625000     -431584.21875000     -431582.56250000
A      -431584.31250000     -431592.43750000     -431584.25000000
A      -431582.93750000     -431594.12500000     -431581.56250000
A      -431584.00000000     -431593.31250000     -431586.31250000
A      -431593.71875000     -431590.46875000     -431592.40625000
B      -431585.28125000     -431590.21875000     -431580.75000000
B      -431584.18750000     -431591.31250000     -431592.25000000
A      -431586.78125000     -431581.06250000     -431593.00000000
B      -431587.96875000     -431593.40625000     -431582.87500000
B      -431579.96875000     -431582.96875000     -431581.53125000
A      -431592.87500000     -431588.53125000     -431589.93750000
A      -431590.87500000     -431592.28125000     -431585.28125000
A      -431580.50000000     -431591.65625000     -431582.90625000
A      -431584.75000000     -431580.96875000     -431587.75000000
A      -431586.06250000     -431588.25000000     -431580.43750000
B      -431585.90625000     -431586.56250000     -431590.75000000
B      -431589.34375000     -431594.03125000     -431582.65625000
B      -431593.53125000     -431588.75000000     -431585.71875000
B      -431587.78125000     -431585.53125000     -431584.12500000
A      -431584.31250000     -431588.65625000     -431582.06250000
B      -431591.59375000     -431580.34375000     -431581.46875000
A      -431579.78125000     -431591.81250000     -431581.15625000
B      -431593.84375000     -431590.31250000     -431590.68750000
A      -431581.15625000     -431583.93750000     -431583.65625000
B      -431588.68750000     -431588.62500000     -431581.03125000
A      -431588.78125000     -431586.03125000     -431589.28125000
B      -431583.40625000     -431583.56250000     -431583.50000000
A      -431591.59375000     -431590.50000000     -431584.37500000
A      -431589.06250000     -431586.84375000     -431592.93750000
B      -431591.56250000     -431586.81250000     -431584.78125000
B      -431584.28125000     -431593.25000000     -431593.40625000
A      -431594.18750000     -431589.28125000     -431590.00000000
A      -431592.46875000     -431588.65625000     -431593.56250000
A      -431583.71875000     -431591.62500000     -431584.18750000
A      -431584.78125000     -431586.43750000     -431593.12500000
A      -431593.84375000     -431579.96875000     -431587.62500000
A      -431583.68750000     -431586.62500000     -431584.40625000
A      -431589.00000000     -431588.75000000     -431593.84375000
A      -431592.06250000     -431593.68750000     -431589.93750000
B      -431591.40625000     -431589.75000000     -431587.31250000
A      -431588.00000000     -431586.96875000     -431585.50000000
A      -431588.56250000     -431589.34375000     -431581.96875000
A      -431585.25000000     -431579.62500000     -431593.78125000
B      -431581.62500000     -431588.78125000     -431590.00000000
B      -431594.18750000     -431585.40625000     -431588.71875000
A      -431594.12500000     -431587.75000000     -431581.71875000
A      -431588.56250000     -431583.68750000     -431585.40625000
B      -431581.46875000     -431585.84375000     -431585.65625000
A      -431582.68750000     -431587.65625000     -431585.75000000
B      -431586.06250000     -431582.34375000     -431584.50000000
B      -431594.43750000     -431590.59375000     -431589.46875000
B      -431583.03125000     -431589.03125000     -431581.53125000
B      -431583.71875000     -431585.15625000     -431581.18750000
A      -431586.56250000     -431581.06250000     -431582.90625000
A      -431591.62500000     -431581.06250000     -431582.62500000
B      -431591.81250000     -431585.34375000     -431590.62500000
A      -431583.87500000     -431587.37500000     -431593.37500000
A      -431581.75000000     -431592.71875000     -431589.96875000
A      -431587.50000000     -431583.15625000     -431591.71875000
B      -431584.21875000     -431591.96875000     -431593.50000000
A      -431589.03125000     -431582.90625000     -431591.09375000
B      -431591.12500000     -431591.53125000     -431580.03125000
B      -431594.25000000     -431583.06250000     -431592.31250000
B      -431594.46875000     -431589.37500000     -431584.93750000
A      -431588.37500000     -431588.34375000     -431593.21875000
A      -431584.09375000     -431589.53125000     -431584.71875000
B      -431586.56250000     -431586.03125000     -431593.78125000
B      -431590.68750000     -431588.18750000     -431581.65625000
A      -431593.28125000     -431586.09375000     -431583.93750000
A      -431581.62500000     -431581.84375000     -431590.18750000
A      -431584.90625000     -431583.40625000     -431582.15625000
A      -431581.50000000     -431580.96875000     -431580.90625000
A      -431588.00000000     -431592.96875000     -431589.28125000
A      -431588.18750000     -431592.03125000     -431594.59375000
B      -431583.00000000     -431593.62500000     -431593.25000000
B      -431588.12500000     -431594.28125000     -431590.96875000
A      -431584.78125000     -431582.87500000     -431594.25000000
A      -431592.53125000     -431585.09375000     -431586.34375000
A      -431587.65625000     -431591.37500000     -431590.09375000
B      -431589.46875000     -431587.37500000     -431585.46875000
A      -431587.75000000     -431583.90625000     -431579.62500000
A      -431584.96875000     -431585.28125000     -431580.40625000
A      -431590.25000000     -431586.09375000     -431590.25000000
B      -431583.90625000     -431590.90625000     -431586.40625000
A      -431580.31250000     -431584.53125000     -431583.12500000
A      -431587.90625000     -431582.62500000     -431583.40625000
A      -431591.53125000     -431585.15625000     -431580.93750000
B      -431580.81250000     -431587.00000000     -431587.25000000
B      -431581.25000000     -431580.50000000     -431591.84375000
A      -431591.56250000     -431583.62500000     -431580.46875000
A      -431593.96875000     -431584.96875000     -431594.06250000
A      -431586.43750000     -431587.90625000     -431593.68750000
B      -431592.68750000     -431585.59375000     -431593.84375000
B      -431584.78125000     -431588.43750000     -431588.18750000
A      -431584.40625000     -431592.09375000     -431587.12500000
B      -431582.56250000     -431588.06250000     -431594.53125000
A      -431588.96875000     -431592.65625000     -431582.18750000
A      -431586.87500000     -431583.59375000     -431583.53125000
B      -431581.03125000     -431582.28125000     -431587.78125000
B      -431581.56250000     -431583.18750000     -431594.00000000
B      -431580.56250000     -431593.56250000     -431592.12500000
A      -431592.84375000     -431585.71875000     -431592.81250000
A      -431585.90625000     -431584.25000000     -431583.62500000
B      -431584.56250000     -431590.12500000     -431582.46875000
B      -431585.87500000     -431591.65625000     -431580.18750000
B      -431588.87500000     -431590.03125000     -431592.78125000
A      -431593.90625000     -431583.03125000     -431583.18750000
A      -431594.56250000     -431587.87500000     -431588.18750000
B      -431587.68750000     -431587.15625000     -431583.34375000
A      -431586.18750000     -431593.18750000     -431580.75000000
A      -431581.75000000     -431593.68750000     -431587.21875000
A      -431583.37500000     -431583.25000000     -431590.75000000
B      -431582.71875000     -431591.59375000     -431586.31250000
B      -431586.75000000     -431582.75000000     -431584.03125000
A      -431583.62500000     -431586.28125000     -431580.87500000
B      -431582.62500000     -431590.00000000     -431588.65625000
B      -431592.28125000     -431593.71875000     -431584.53125000
B      -431589.40625000     -431584.12500000     -431582.62500000
B      -431579.87500000     -431585.06250000     -431590.15625000
B      -431592.43750000     -431592.43750000     -431580.81250000
A      -431589.00000000     -431582.37500000     -431593.90625000
B      -431591.00000000     -431581.12500000     -431590.75000000
A      -431591.46875000     -431591.15625000     -431581.90625000
B      -431581.28125000     -431581.93750000     -431585.46875000
B      -431592.00000000     -431591.84375000     -431589.25000000
A      -431591.81250000     -431581.18750000     -431585.25000000
A      -431580.90625000     -431586.75000000     -431583.62500000
B      -431580.06250000     -431581.59375000     -431582.00000000
B      -431580.00000000     -431583.46875000     -431583.84375000
A      -431584.90625000     -431582.40625000     -431583.56250000
A      -431592.71875000     -431583.81250000     -431588.96875000
A      -431580.87500000     -431581.25000000     -431594.12500000
A      -431588.31250000     -431592.25000000     -431580.81250000
B      -431591.40625000     -431594.12500000     -431583.03125000
B      -431586.25000000     -431582.50000000     -431581.81250000
A      -431586.50000000     -431579.71875000     -431581.56250000
B      -431589.09375000     -431594.06250000     -431586.18750000
B      -431592.81250000     -431589.71875000     -431581.09375000
A      -431580.50000000     -431592.71875000     -431581.84375000
A      -431587.90625000     -431591.25000000     -431585.06250000
A      -431590.21875000     -431584.37500000     -431586.18750000
A      -431585.50000000     -431582.78125000     -431588.25000000
B      -431583.50000000     -431592.56250000     -431586.84375000
A      -431594.50000000     -431583.37500000     -431589.59375000
A      -431587.65625000     -431583.06250000     -431593.84375000
A      -431587.09375000     -431584.00000000     -431590.59375000
A      -431584.90625000     -431585.62500000     -431590.62500000
B      -431587.68750000     -431583.37500000     -431589.31250000
A      -431588.84375000     -431594.18750000     -431590.25000000
B      -431581.34375000     -431588.12500000     -431580.62500000
A      -431586.59375000     -431594.43750000     -431579.96875000
B      -431585.56250000     -431587.12500000     -431586.18750000
A      -431588.90625000     -431591.09375000     -431580.53125000
B      -431580.12500000     -431585.46875000     -431585.84375000
A      -431593.40625000     -431581.46875000     -431590.03125000
B      -431580.59375000     -431585.78125000     -431591.34375000
B      -431586.18750000     -431581.46875000     -431590.84375000
B      -431583.68750000     -431581.59375000     -431591.12500000
B      -431587.90625000     -431581.25000000     -431585.96875000
B      -431579.65625000     -431593.71875000     -431585.31250000
B      -431592.03125000     -431592.84375000     -431591.12500000
B      -431589.53125000     -431590.40625000     -431586.87500000
A      -431590.21875000     -431587.46875000     -431588.56250000
A      -431586.37500000     -431582.06250000     -431582.68750000
A      -431585.68750000     -431581.53125000     -431589.81250000
B      -431590.56250000     -431580.43750000     -431583.81250000
A      -431594.18750000     -431593.96875000     -431587.78125000
A      -431592.56250000     -431594.37500000     -431591.40625000
B      -431582.62500000     -431582.90625000     -431584.71875000
B      -431590.96875000     -431587.12500000     -431594.25000000
B      -431594.12500000     -431589.25000000     -431583.87500000
A      -431591.87500000     -431590.12500000     -431591.87500000
B      -431592.56250000     -431593.71875000     -431586.71875000
B      -431582.50000000     -431592.21875000     -431581.09375000
B      -431594.15625000     -431591.87500000     -431582.31250000
A      -431586.03125000     -431589.37500000     -431586.50000000
A      -431593.03125000     -431592.28125000     -431586.21875000
A      -431581.15625000     -431593.50000000     -431581.50000000
B      -431588.78125000     -431586.37500000     -431584.50000000
A      -431590.37500000     -431580.34375000     -431579.87500000
B      -431585.65625000     -431590.50000000     -431592.62500000
A      -431591.15625000     -431587.40625000     -431584.21875000
A      -431584.53125000     -431579.84375000     -431591.03125000
B      -431591.06250000     -431581.12500000     -431587.34375000
B      -431586.53125000     -431586.03125000     -431589.53125000
A      -431580.75000000     -431583.50000000     -431582.50000000
B      -431593.62500000     -431583.78125000     -431581.71875000
A      -431593.93750000     -431587.34375000     -431594.28125000
A      -431585.31250000     -431586.50000000     -431585.53125000
B      -431583.18750000     -431581.56250000     -431592.21875000
B      -431582.78125000     -431594.28125000     -431588.03125000
B      -431587.00000000     -431590.56250000     -431593.56250000
B      -431579.87500000     -431587.00000000     -431585.37500000
B      -431589.09375000     -431580.25000000     -431581.68750000
A      -431590.96875000     -431590.25000000     -431593.84375000
B      -431590.09375000     -431582.78125000     -431584.84375000
A      -431590.65625000     -431592.53125000     -431591.34375000
B      -431591.90625000     -431585.12500000     -431593.00000000
B      -431583.21875000     -431589.59375000     -431593.71875000
A      -431584.18750000     -431581.50000000     -431586.09375000
A      -431593.37500000     -431582.65625000     -431579.59375000
B      -431591.68750000     -431579.90625000     -431591.12500000
A      -431591.00000000     -431590.78125000     -431588.50000000
A      -431590.50000000     -431581.09375000     -431588.90625000
B      -431591.50000000     -431593.81250000     -431585.53125000
B      -431589.18750000     -431584.56250000     -431579.93750000
A      -431581.15625000     -431589.37500000     -431580.28125000
A      -431591.56250000     -431590.34375000     -431589.25000000
B      -431590.21875000     -431591.28125000     -431593.09375000
A      -431583.96875000     -431581.93750000     -431584.53125000
A      -431580.56250000     -431590.21875000     -431585.50000000
A      -431581.50000000     -431580.90625000     -431582.15625000
A      -431590.03125000     -431582.84375000     -431592.34375000
B      -431584.25000000     -431588.68750000     -431579.68750000
B      -431588.40625000     -431594.18750000     -431584.28125000
A      -431592.06250000     -431591.15625000     -431591.75000000
A      -431593.75000000     -431580.18750000     -431593.31250000
B      -431580.15625000     -431586.00000000     -431581.40625000
A      -431588.53125000     -431588.40625000     -431584.71875000
A      -431580.40625000     -431590.34375000     -431594.56250000
A      -431588.37500000     -431589.50000000     -431585.25000000
B      -431594.53125000     -431593.00000000     -431588.68750000
B      -431589.84375000     -431582.21875000     -431581.78125000
A      -431591.62500000     -431586.12500000     -431587.56250000
B      -431588.09375000     -431589.06250000     -431588.31250000
B      -431588.68750000     -431580.31250000     -431586.96875000
B      -431585.46875000     -431582.93750000     -431593.34375000
B      -431587.53125000     -431585.15625000     -431589.59375000
A      -431585.37500000     -431592.43750000     -431590.37500000
B      -431594.46875000     -431585.93750000     -431583.03125000
A      -431580.06250000     -431589.06250000     -431581.03125000
A      -431589.93750000     -431588.37500000     -431583.12500000
A      -431588.75000000     -431588.18750000     -431583.71875000
A      -431593.21875000     -431593.37500000     -431583.31250000
B      -431585.03125000     -431589.18750000     -431587.46875000
A      -431588.37500000     -431591.78125000     -431589.43750000
B      -431589.46875000     -431591.87500000     -431590.50000000
B      -431587.06250000     -431580.12500000     -431582.46875000
B      -431580.90625000     -431591.90625000     -431587.37500000
B      -431584.09375000     -431590.87500000     -431580.53125000
A      -431590.68750000     -431590.25000000     -431580.31250000
A      -431580.78125000     -431587.21875000     -431593.18750000
A      -431593.43750000     -431590.34375000     -431588.84375000
A      -431586.87500000     -431588.12500000     -431592.46875000
B      -431593.46875000     -431594.53125000     -431580.87500000
B      -431583.25000000     -431591.78125000     -431593.06250000
A      -431584.43750000     -431586.68750000     -431582.21875000
B      -431590.53125000     -431587.09375000     -431581.53125000
B      -431593.59375000     -431591.53125000     -431591.62500000
A      -431591.59375000     -431580.25000000     -431585.68750000
A      -431590.71875000     -431593.00000000     -431593.65625000
A      -431592.37500000     -431581.18750000     -431589.18750000
A      -431588.87500000     -431589.62500000     -431584.31250000
A      -431590.59375000     -431587.34375000     -431586.68750000
A      -431582.68750000     -431583.40625000     -431587.28125000
B      -431586.21875000     -431590.40625000     -431589.37500000
B      -431580.93750000     -431583.15625000     -431589.06250000
B      -431581.37500000     -431590.87500000     -431588.53125000
B      -431581.46875000     -431585.46875000     -431582.84375000
A      -431587.81250000     -431583.15625000     -431588.09375000
A      -431582.53125000     -431591.96875000     -431589.75000000
B      -431583.93750000     -431591.62500000     -431581.65625000
A      -431593.34375000     -431586.31250000     -431586.06250000
B      -431590.81250000     -431582.28125000     -431586.96875000
B      -431579.78125000     -431580.84375000     -431592.78125000
A      -431589.43750000     -431586.71875000     -431582.43750000
B      -431593.59375000     -431582.15625000     -431586.28125000
A      -431587.50000000     -431587.81250000     -431580.81250000
B      -431589.12500000     -431581.34375000     -431584.68750000
A      -431586.96875000     -431592.90625000     -431590.40625000
A      -431587.96875000     -431585.81250000     -431588.90625000
B      -431586.21875000     -431587.34375000     -431582.03125000
B      -431594.43750000     -431592.96875000     -431594.00000000
B      -431590.75000000     -431588.43750000     -431583.96875000
A      -431592.59375000     -431586.43750000     -431581.75000000
B      -431591.31250000     -431580.75000000     -431589.90625000
A      -431585.50000000     -431594.43750000     -431580.25000000
B      -431581.31250000     -431585.71875000     -431592.31250000
B      -431586.56250000     -431580.84375000     -431584.81250000
B      -431588.50000000     -431580.09375000     -431593.12500000
A      -431587.00000000     -431589.56250000     -431589.65625000
A      -431590.84375000     -431590.25000000     -431586.59375000
B      -431587.43750000     -431589.65625000     -431584.46875000
B      -431592.78125000     -431584.62500000     -431592.37500000
A      -431592.90625000     -431593.06250000     -431584.25000000
B      -431587.21875000     -431587.78125000     -431584.78125000
B      -431585.00000000     -431593.09375000     -431582.12500000
B      -431581.43750000     -431586.78125000     -431580.15625000
A      -431582.40625000     -431581.81250000     -431593.62500000
A      -431589.15625000     -431591.06250000     -431582.31250000
B      -431590.50000000     -431586.15625000     -431591.96875000
B      -431592.03125000     -431586.43750000     -431590.96875000
A      -431591.21875000     -431584.71875000     -431584.12500000
A      -431584.93750000     -431593.75000000     -431589.65625000
B      -431589.78125000     -431589.96875000     -431592.15625000
B      -431590.43750000     -431580.18750000     -431591.06250000
B      -431585.21875000     -431583.25000000     -431585.84375000
B      -431594.28125000     -431584.09375000     -431585.12500000
A      -431583.78125000     -431588.87500000     -431586.75000000
A      -431585.71875000     -431587.15625000     -431594.12500000
A      -431583.12500000     -431594.25000000     -431594.59375000
A      -431583.37500000     -431590.37500000     -431582.68750000
A      -431584.21875000     -431584.53125000     -431583.53125000
B      -431583.25000000     -431586.06250000     -431590.62500000
B      -431590.59375000     -431583.59375000     -431579.93750000
B      -431591.37500000     -431582.56250000     -431585.40625000
A      -431587.34375000     -431579.62500000     -431589.00000000
B      -431591.28125000     -431585.12500000     -431585.96875000
B      -431580.65625000     -431587.71875000     -431584.96875000
A      -431584.75000000     -431583.46875000     -431593.09375000
A      -431591.59375000     -431591.09375000     -431583.62500000
A      -431583.28125000     -431581.18750000     -431586.37500000
B      -431583.62500000     -431592.31250000     -431583.25000000
B      -431588.68750000     -431585.53125000     -431587.28125000
A      -431583.15625000     -431585.90625000     -431589.56250000
B      -431589.18750000     -431583.34375000     -431593.37500000
B      -431579.62500000     -431593.93750000     -431588.65625000
B      -431588.37500000     -431588.09375000     -431590.56250000
A      -431583.50000000     -431589.46875000     -431583.75000000
B      -431585.28125000     -431581.18750000     -431584.34375000
B      -431586.06250000     -431594.37500000     -431586.93750000
B      -431580.03125000     -431581.25000000     -431584.06250000
A      -431593.03125000     -431590.59375000     -431587.59375000
B      -431579.62500000     -431583.50000000     -431593.96875000
A      -431584.37500000     -431580.25000000     -431584.00000000
A      -431592.46875000     -431584.40625000     -431585.40625000
A      -431579.96875000     -431593.53125000     -431580.96875000
B      -431585.15625000     -431581.25000000     -431585.96875000
A      -431591.96875000     -431585.21875000     -431582.09375000
A      -431582.34375000     -431583.37500000     -431579.96875000
B      -431590.21875000     -431580.37500000     -431581.96875000
B      -431591.34375000     -431581.59375000     -431588.12500000
A      -431588.75000000     -431586.34375000     -431579.87500000
A      -431592.50000000     -431587.78125000     -431591.87500000
A      -431581.75000000     -431590.59375000     -431582.34375000
B      -431580.84375000     -431593.06250000     -431590.78125000
B      -431584.06250000     -431584.03125000     -431592.93750000
B      -431587.37500000     -431580.18750000     -431593.12500000
A      -431593.18750000     -431586.78125000     -431589.71875000
B      -431582.21875000     -431583.53125000     -431586.12500000
A      -431591.78125000     -431579.71875000     -431588.18750000
A      -431583.78125000     -431581.09375000     -431581.93750000
A      -431590.46875000     -431589.15625000     -431594.12500000
B      -431583.21875000     -431588.06250000     -431591.21875000